#------------------------------------------------------------------------------
#$Date: 2016-02-14 06:40:26 +0200 (Sun, 14 Feb 2016) $
#$Revision: 176432 $
#$URL: svn://www.crystallography.net/cod/cif/1/51/33/1513304.cif $
#------------------------------------------------------------------------------
#
# This file is available in the Crystallography Open Database (COD),
# http://www.crystallography.net/. The original data for this entry
# were provided the Crystal Eye server at
# http://wwmm.ch.cam.ac.uk/crystaleye/, created by Nick Day at the
# Peter Murray-Rust laboratory.
#
# The file may be used within the scientific community so long as
# proper attribution is given to the journal article from which the
# data were obtained.
#
data_1513304
loop_
_publ_author_name
'Ferreira, Fabio Furlan'
'Granado, Eduardo'
'Carvalho Jr, Wilson'
'Kycia, Stefan W.'
'Bruno, Daniele'
'Droppa Jr, Roosevelt'
_publ_section_title
;
 X-ray powder diffraction beamline at D10B of LNLS: application to the
 Ba2FeReO6double perovskite
;
_journal_coeditor_code           ML5212
_journal_issue                   1
_journal_name_full               'Journal of Synchrotron Radiation'
_journal_page_first              46
_journal_page_last               53
_journal_paper_doi               10.1107/S0909049505039208
_journal_volume                  13
_journal_year                    2005
_chemical_formula_analytical     'Fe3 O4'
_chemical_formula_moiety         'Fe3 O4'
_chemical_formula_structural     'Fe3 O4'
_chemical_formula_sum            'Fe3 O4'
_chemical_formula_weight         231.54
_chemical_name_common            'iron oxide'
_chemical_name_systematic        'iron oxide'
_space_group_IT_number           227
_symmetry_cell_setting           cubic
_symmetry_space_group_name_Hall  '-F 4vw 2vw 3'
_symmetry_space_group_name_H-M   'F d -3 m :2'
_cell_angle_alpha                90.0
_cell_angle_beta                 90.0
_cell_angle_gamma                90.0
_cell_formula_units_Z            8
_cell_length_a                   8.3985(5)
_cell_length_b                   8.3985
_cell_length_c                   8.3985
_cell_measurement_temperature    400
_cell_volume                     592.39(4)
_computing_structure_solution    'GSAS (Larson & Von Dreele, 2001)'
_cod_data_source_file            ml5212sup1.cif
_cod_data_source_block           T400KBST_phase_2
_cod_depositor_comments
;
The following automatic conversions were performed:

'_geom_bond_publ_flag' value 'N' changed to 'n' according to
/home/saulius/struct/CIF-dictionaries/cif_core.dic dictionary named
'cif_core.dic' version 2.4.2 from 2011-04-26 (14
times).

'_geom_angle_publ_flag' value 'N' changed to 'n' according
to /home/saulius/struct/CIF-dictionaries/cif_core.dic dictionary
named 'cif_core.dic' version 2.4.2 from 2011-04-26 (27 times).

Automatic conversion script
Id: cif_fix_values 1891 2012-01-12 08:04:46Z andrius 
;
_cod_original_cell_volume        592.38(10)
_cod_original_sg_symbol_Hall     'F d -3 m'
_cod_original_sg_symbol_H-M      'F d -3 m'
_cod_database_code               1513304
loop_
_symmetry_equiv_pos_site_id
_symmetry_equiv_pos_as_xyz
1 +x,+y,+z
2 +z,+x,+y
3 +y,+z,+x
4 +x+1/4,+y+1/4,-z
5 -z,+x+1/4,+y+1/4
6 +y+1/4,-z,+x+1/4
7 -z+1/4,+x+1/2,-y+3/4
8 -y+3/4,-z+1/4,+x+1/2
9 +y+1/2,-z+1/4,-x+3/4
10 -x+3/4,+y+1/2,-z+1/4
11 -z+1/4,-x+3/4,+y+1/2
12 +x+1/2,-y+3/4,-z+1/4
13 +y,+x,+z
14 +z,+y,+x
15 +x,+z,+y
16 +y+1/4,+x+1/4,-z
17 -z,+y+1/4,+x+1/4
18 +x+1/4,-z,+y+1/4
19 -z+1/4,+y+1/2,-x+3/4
20 -x+3/4,-z+1/4,+y+1/2
21 +x+1/2,-z+1/4,-y+3/4
22 -y+3/4,+x+1/2,-z+1/4
23 -z+1/4,-y+3/4,+x+1/2
24 +y+1/2,-x+3/4,-z+1/4
-1 -x,-y,-z
-2 -z,-x,-y
-3 -y,-z,-x
-4 -x+3/4,-y+3/4,+z
-5 +z,-x+3/4,-y+3/4
-6 -y+3/4,+z,-x+3/4
-7 +z+3/4,-x+1/2,+y+1/4
-8 +y+1/4,+z+3/4,-x+1/2
-9 -y+1/2,+z+3/4,+x+1/4
-10 +x+1/4,-y+1/2,+z+3/4
-11 +z+3/4,+x+1/4,-y+1/2
-12 -x+1/2,+y+1/4,+z+3/4
-13 -y,-x,-z
-14 -z,-y,-x
-15 -x,-z,-y
-16 -y+3/4,-x+3/4,+z
-17 +z,-y+3/4,-x+3/4
-18 -x+3/4,+z,-y+3/4
-19 +z+3/4,-y+1/2,+x+1/4
-20 +x+1/4,+z+3/4,-y+1/2
-21 -x+1/2,+z+3/4,+y+1/4
-22 +y+1/4,-x+1/2,+z+3/4
-23 +z+3/4,+y+1/4,-x+1/2
-24 -y+1/2,+x+1/4,+z+3/4
101 +x,+y+1/2,+z+1/2
102 +z,+x+1/2,+y+1/2
103 +y,+z+1/2,+x+1/2
104 +x+1/4,+y+3/4,-z+1/2
105 -z,+x+3/4,+y+3/4
106 +y+1/4,-z+1/2,+x+3/4
107 -z+1/4,+x,-y+1/4
108 -y+3/4,-z+3/4,+x
109 +y+1/2,-z+3/4,-x+1/4
110 -x+3/4,+y,-z+3/4
111 -z+1/4,-x+1/4,+y
112 +x+1/2,-y+1/4,-z+3/4
113 +y,+x+1/2,+z+1/2
114 +z,+y+1/2,+x+1/2
115 +x,+z+1/2,+y+1/2
116 +y+1/4,+x+3/4,-z+1/2
117 -z,+y+3/4,+x+3/4
118 +x+1/4,-z+1/2,+y+3/4
119 -z+1/4,+y,-x+1/4
120 -x+3/4,-z+3/4,+y
121 +x+1/2,-z+3/4,-y+1/4
122 -y+3/4,+x,-z+3/4
123 -z+1/4,-y+1/4,+x
124 +y+1/2,-x+1/4,-z+3/4
-101 -x,-y+1/2,-z+1/2
-102 -z,-x+1/2,-y+1/2
-103 -y,-z+1/2,-x+1/2
-104 -x+3/4,-y+1/4,+z+1/2
-105 +z,-x+1/4,-y+1/4
-106 -y+3/4,+z+1/2,-x+1/4
-107 +z+3/4,-x,+y+3/4
-108 +y+1/4,+z+1/4,-x
-109 -y+1/2,+z+1/4,+x+3/4
-110 +x+1/4,-y,+z+1/4
-111 +z+3/4,+x+3/4,-y
-112 -x+1/2,+y+3/4,+z+1/4
-113 -y,-x+1/2,-z+1/2
-114 -z,-y+1/2,-x+1/2
-115 -x,-z+1/2,-y+1/2
-116 -y+3/4,-x+1/4,+z+1/2
-117 +z,-y+1/4,-x+1/4
-118 -x+3/4,+z+1/2,-y+1/4
-119 +z+3/4,-y,+x+3/4
-120 +x+1/4,+z+1/4,-y
-121 -x+1/2,+z+1/4,+y+3/4
-122 +y+1/4,-x,+z+1/4
-123 +z+3/4,+y+3/4,-x
-124 -y+1/2,+x+3/4,+z+1/4
201 +x+1/2,+y,+z+1/2
202 +z+1/2,+x,+y+1/2
203 +y+1/2,+z,+x+1/2
204 +x+3/4,+y+1/4,-z+1/2
205 -z+1/2,+x+1/4,+y+3/4
206 +y+3/4,-z,+x+3/4
207 -z+3/4,+x+1/2,-y+1/4
208 -y+1/4,-z+1/4,+x
209 +y,-z+1/4,-x+1/4
210 -x+1/4,+y+1/2,-z+3/4
211 -z+3/4,-x+3/4,+y
212 +x,-y+3/4,-z+3/4
213 +y+1/2,+x,+z+1/2
214 +z+1/2,+y,+x+1/2
215 +x+1/2,+z,+y+1/2
216 +y+3/4,+x+1/4,-z+1/2
217 -z+1/2,+y+1/4,+x+3/4
218 +x+3/4,-z,+y+3/4
219 -z+3/4,+y+1/2,-x+1/4
220 -x+1/4,-z+1/4,+y
221 +x,-z+1/4,-y+1/4
222 -y+1/4,+x+1/2,-z+3/4
223 -z+3/4,-y+3/4,+x
224 +y,-x+3/4,-z+3/4
-201 -x+1/2,-y,-z+1/2
-202 -z+1/2,-x,-y+1/2
-203 -y+1/2,-z,-x+1/2
-204 -x+1/4,-y+3/4,+z+1/2
-205 +z+1/2,-x+3/4,-y+1/4
-206 -y+1/4,+z,-x+1/4
-207 +z+1/4,-x+1/2,+y+3/4
-208 +y+3/4,+z+3/4,-x
-209 -y,+z+3/4,+x+3/4
-210 +x+3/4,-y+1/2,+z+1/4
-211 +z+1/4,+x+1/4,-y
-212 -x,+y+1/4,+z+1/4
-213 -y+1/2,-x,-z+1/2
-214 -z+1/2,-y,-x+1/2
-215 -x+1/2,-z,-y+1/2
-216 -y+1/4,-x+3/4,+z+1/2
-217 +z+1/2,-y+3/4,-x+1/4
-218 -x+1/4,+z,-y+1/4
-219 +z+1/4,-y+1/2,+x+3/4
-220 +x+3/4,+z+3/4,-y
-221 -x,+z+3/4,+y+3/4
-222 +y+3/4,-x+1/2,+z+1/4
-223 +z+1/4,+y+1/4,-x
-224 -y,+x+1/4,+z+1/4
301 +x+1/2,+y+1/2,+z
302 +z+1/2,+x+1/2,+y
303 +y+1/2,+z+1/2,+x
304 +x+3/4,+y+3/4,-z
305 -z+1/2,+x+3/4,+y+1/4
306 +y+3/4,-z+1/2,+x+1/4
307 -z+3/4,+x,-y+3/4
308 -y+1/4,-z+3/4,+x+1/2
309 +y,-z+3/4,-x+3/4
310 -x+1/4,+y,-z+1/4
311 -z+3/4,-x+1/4,+y+1/2
312 +x,-y+1/4,-z+1/4
313 +y+1/2,+x+1/2,+z
314 +z+1/2,+y+1/2,+x
315 +x+1/2,+z+1/2,+y
316 +y+3/4,+x+3/4,-z
317 -z+1/2,+y+3/4,+x+1/4
318 +x+3/4,-z+1/2,+y+1/4
319 -z+3/4,+y,-x+3/4
320 -x+1/4,-z+3/4,+y+1/2
321 +x,-z+3/4,-y+3/4
322 -y+1/4,+x,-z+1/4
323 -z+3/4,-y+1/4,+x+1/2
324 +y,-x+1/4,-z+1/4
-301 -x+1/2,-y+1/2,-z
-302 -z+1/2,-x+1/2,-y
-303 -y+1/2,-z+1/2,-x
-304 -x+1/4,-y+1/4,+z
-305 +z+1/2,-x+1/4,-y+3/4
-306 -y+1/4,+z+1/2,-x+3/4
-307 +z+1/4,-x,+y+1/4
-308 +y+3/4,+z+1/4,-x+1/2
-309 -y,+z+1/4,+x+1/4
-310 +x+3/4,-y,+z+3/4
-311 +z+1/4,+x+3/4,-y+1/2
-312 -x,+y+3/4,+z+3/4
-313 -y+1/2,-x+1/2,-z
-314 -z+1/2,-y+1/2,-x
-315 -x+1/2,-z+1/2,-y
-316 -y+1/4,-x+1/4,+z
-317 +z+1/2,-y+1/4,-x+3/4
-318 -x+1/4,+z+1/2,-y+3/4
-319 +z+1/4,-y,+x+1/4
-320 +x+3/4,+z+1/4,-y+1/2
-321 -x,+z+1/4,+y+1/4
-322 +y+3/4,-x,+z+3/4
-323 +z+1/4,+y+3/4,-x+1/2
-324 -y,+x+3/4,+z+3/4
loop_
_atom_site_label
_atom_site_fract_x
_atom_site_fract_y
_atom_site_fract_z
_atom_site_U_iso_or_equiv
_atom_site_thermal_displace_type
_atom_site_occupancy
_atom_site_type_symbol
Fe1 0.125 0.125 0.125 -0.016(4) Uiso 1.0 Fe
Fe2 0.5 0.5 0.5 -0.016(4) Uiso 1.0 Fe
O 0.246(10) 0.246(10) 0.246(10) -0.016(4) Uiso 1.0 O
loop_
_atom_type_symbol
Fe
O
loop_
_geom_angle_atom_site_label_1
_geom_angle_atom_site_label_2
_geom_angle_atom_site_label_3
_geom_angle_site_symmetry_1
_geom_angle_site_symmetry_3
_geom_angle
_geom_angle_publ_flag
O Fe1 O 1_555 107_443 109.471(2) n
O Fe1 O 1_555 111_443 109.471(4) n
O Fe1 O 1_555 -105_454 109.471(2) n
O Fe1 O 107_443 111_443 109.471(2) n
O Fe1 O 107_443 -105_454 109.471(4) n
O Fe1 O 111_443 -105_454 109.471(2) n
O Fe2 O 4_556 5_655 92(4) n
O Fe2 O 4_556 6_565 92(4) n
O Fe2 O 4_556 -4_564 179.9557 n
O Fe2 O 4_556 -5_465 88(4) n
O Fe2 O 4_556 -6_555 88(4) n
O Fe2 O 5_655 6_565 92(4) n
O Fe2 O 5_655 -4_564 88(4) n
O Fe2 O 5_655 -5_465 179.9557 n
O Fe2 O 5_655 -6_555 88(4) n
O Fe2 O 6_565 -4_564 88(4) n
O Fe2 O 6_565 -5_465 88(4) n
O Fe2 O 6_565 -6_555 179.9557 n
O Fe2 O -4_564 -5_465 92(4) n
O Fe2 O -4_564 -6_555 92(4) n
O Fe2 O -5_465 -6_555 92(4) n
Fe1 O Fe2 1_555 -4_654 127.(3) n
Fe1 O Fe2 1_555 -5_555 127.(3) n
Fe1 O Fe2 1_555 -6_645 127.(3) n
Fe2 O Fe2 -4_654 -5_555 88(5) n
Fe2 O Fe2 -4_654 -6_645 88(5) n
Fe2 O Fe2 -5_555 -6_645 88(5) n
loop_
_geom_bond_atom_site_label_1
_geom_bond_atom_site_label_2
_geom_bond_site_symmetry_2
_geom_bond_distance
_geom_bond_publ_flag
Fe1 O 1_555 1.76(15) n
Fe1 O 107_555 1.76(15) n
Fe1 O 111_555 1.76(15) n
Fe1 O -105_544 1.76(15) n
Fe2 O 4_556 2.14(9) n
Fe2 O 5_655 2.14(9) n
Fe2 O 6_565 2.14(9) n
Fe2 O -4_555 2.14(9) n
Fe2 O -5_555 2.14(9) n
Fe2 O -6_555 2.14(9) n
O Fe1 1_555 1.76(15) n
O Fe2 -4_555 2.14(9) n
O Fe2 -5_555 2.14(9) n
O Fe2 -6_555 2.14(9) n
